                         Program Version 6.0.0  -   RELEASE  -
|  1> # avogadro generated ORCA file
|  2> # CH5P | Frequencies | HF/6-31G(d)
|  3> #
|  4> ! Opt Freq HF 6-31G(d)
|  5>
|  6> %maxcore 1024
|  7>
|  8> %pal
|  9>    nprocs 1
| 10> end
| 11>
| 12> %output
| 13>    print[p_mos] 1
| 14>    print[p_basis] 2
| 15> end
| 16>
| 17> %plots
| 18>     Format Cube
| 19>     ElDens("electron-density.cube");
| 20>     MO("homo.cube",13,0);
| 21>     MO("lumo.cube",14,0);
| 22> end
| 23>
| 24> * xyz 0 1
| 25>    P     -0.917200    0.000000    0.000000
| 26>    C      0.917200    0.000000    0.000000
| 27>    H      1.301800   -0.242000    0.994600
| 28>    H      1.299900    0.982900   -0.288200
| 29>    H      1.299900   -0.740600   -0.707600
| 30>    H     -1.100400    0.797600    1.154300
| 31>    H     -1.100500   -1.238700    0.659000
| 32> *
| 33>
| 34>
| 35>
| 36>                          ****END OF INPUT****
 Total Charge           Charge          ....    0
 Multiplicity           Mult            ....    1
 Number of Electrons    NEL             ....   26
FINAL SINGLE POINT ENERGY      -381.483686787216
FINAL SINGLE POINT ENERGY      -381.484445234415
FINAL SINGLE POINT ENERGY      -381.484586951040
FINAL SINGLE POINT ENERGY      -381.484602854885
FINAL SINGLE POINT ENERGY      -381.484606291625
                    ***********************HURRAY********************

CARTESIAN COORDINATES (ANGSTROEM)
---------------------------------
  P     -0.921669   -0.001457    0.006295
  C      0.939009   -0.003808    0.015643
  H      1.361837   -0.239391    0.984111
  H      1.297375    0.971906   -0.293468
  H      1.297339   -0.728559   -0.707081
  H     -1.136541    0.786810    1.148260
  H     -1.136650   -1.226301    0.658340

 Multiplicity           Mult            ....    1
 Number of Electrons    NEL             ....   26
 Basis Dimension        Dim             ....   42

ORBITAL ENERGIES
----------------

  NO   OCC          E(Eh)            E(eV)
   0   2.0000     -79.919395     -2174.7173
   1   2.0000     -11.224678      -305.4390
   2   2.0000      -7.476957      -203.4583
   3   2.0000      -5.370590      -146.1412
   4   2.0000      -5.370220      -146.1311
   5   2.0000      -5.368419      -146.0821
   6   2.0000      -0.981482       -26.7075
   7   2.0000      -0.799547       -21.7568
   8   2.0000      -0.586273       -15.9533
   9   2.0000      -0.578892       -15.7525
  10   2.0000      -0.500406       -13.6167
  11   2.0000      -0.485742       -13.2177
  12   2.0000      -0.357085        -9.7168
  13   0.0000       0.169256         4.6057
  14   0.0000       0.187634         5.1058
  15   0.0000       0.282178         7.6785
  16   0.0000       0.289564         7.8794
  17   0.0000       0.298205         8.1146

------------------
MOLECULAR ORBITALS (RHF, ROHF)
------------------
                      0         1         2         3         4         5
                 -79.91939 -11.22468  -7.47696  -5.37059  -5.37022  -5.36842
                   2.00000   2.00000   2.00000   2.00000   2.00000   2.00000
                  --------  --------  --------  --------  --------  --------
  0P   1s        -0.996842 -0.000002  0.276173  0.000000  0.000306 -0.001939
  0P   2s        -0.011813 -0.000041 -1.031049 -0.000000 -0.001131  0.007435
  0P   1pz       -0.000076 -0.000003 -0.005280 -0.235046  0.625197 -0.736764
  0P   1px       -0.000079 -0.000057 -0.003294 -0.000079 -0.757733 -0.643544
  0P   1py        0.000019  0.000001  0.001285 -0.965929 -0.152071  0.179334
  0P   3s         0.004038 -0.000052 -0.015418 -0.000000  0.000450 -0.002360
  0P   2pz        0.000095 -0.000004 -0.001010 -0.004846  0.012649 -0.013695
  0P   2px        0.000262  0.000795 -0.000839 -0.000002 -0.016381 -0.012780
  0P   2py       -0.000023  0.000001  0.000246 -0.019914 -0.003077  0.003334
  0P   4s        -0.003524  0.004328  0.006883 -0.000000 -0.002738  0.000428
  0P   3pz       -0.000765  0.001005  0.001649  0.001218 -0.003777  0.003104
  0P   3px       -0.000346  0.001673  0.000886  0.000000  0.003208  0.002708
  0P   3py        0.000186 -0.000245 -0.000401  0.005004  0.000919 -0.000756
  0P   1dz2      -0.000024 -0.000028  0.000103 -0.000426  0.000841 -0.000125
  0P   1dxz      -0.000002 -0.000013  0.000173 -0.000068 -0.000193 -0.000571
  0P   1dyz      -0.000006  0.000013 -0.000051 -0.000951 -0.000123  0.000149
  0P   1dx2y2     0.000065 -0.000000  0.000020 -0.000246 -0.000981 -0.000361
  0P   1dxy       0.000001  0.000003 -0.000042 -0.000277  0.000047  0.000139
  1C   1s         0.000034  0.996214  0.000095  0.000000  0.000096  0.000118
  1C   2s         0.000195  0.025658 -0.000345 -0.000000 -0.000937 -0.000689
  1C   1pz       -0.000018 -0.000038  0.000039 -0.000025  0.000013 -0.000079
  1C   1px        0.000140 -0.000164  0.000036 -0.000000 -0.000052  0.000049
  1C   1py        0.000004  0.000009 -0.000010 -0.000104 -0.000003  0.000019
  1C   3s        -0.000505 -0.016582  0.000594  0.000000  0.003642  0.002296
  1C   2pz        0.000168 -0.000053 -0.000333  0.000261 -0.000424  0.000680
  1C   2px       -0.000240  0.000681  0.000597 -0.000000 -0.001211 -0.000525
  1C   2py       -0.000041  0.000013  0.000081  0.001071  0.000103 -0.000165
  1C   1dz2       0.000134  0.000107 -0.000053 -0.000032 -0.000145  0.000014
  1C   1dxz      -0.000005  0.000027  0.000003 -0.000051  0.000089 -0.000155
  1C   1dyz      -0.000006  0.000001  0.000011 -0.000071  0.000021 -0.000027
  1C   1dx2y2    -0.000208 -0.000189  0.000050 -0.000018  0.000171  0.000079
  1C   1dxy       0.000001 -0.000007 -0.000001 -0.000211 -0.000022  0.000038
  2H   1s        -0.000054 -0.000007  0.000071 -0.000000 -0.000217 -0.000189
  2H   2s         0.000412  0.002646 -0.000770 -0.000000  0.000029 -0.001488
  3H   1s        -0.000011 -0.000042 -0.000042 -0.000026 -0.000219 -0.000133
  3H   2s         0.000439  0.002732 -0.000737 -0.001199 -0.001121 -0.000273
  4H   1s        -0.000011 -0.000042 -0.000042  0.000026 -0.000219 -0.000133
  4H   2s         0.000439  0.002732 -0.000737  0.001199 -0.001121 -0.000273
  5H   1s        -0.000320 -0.000063  0.000077  0.000352 -0.000212  0.000019
  5H   2s         0.001001 -0.001050 -0.001655 -0.000708  0.001146 -0.000253
  6H   1s        -0.000320 -0.000063  0.000077 -0.000352 -0.000212  0.000019
  6H   2s         0.001001 -0.001050 -0.001655  0.000708  0.001146 -0.000253
                      6         7         8         9        10        11
                  -0.98148  -0.79955  -0.58627  -0.57889  -0.50041  -0.48574
                   2.00000   2.00000   2.00000   2.00000   2.00000   2.00000
                  --------  --------  --------  --------  --------  --------
  0P   1s        -0.029884 -0.053607 -0.000000 -0.007205 -0.000000 -0.005712
  0P   2s         0.139755  0.250994  0.000001  0.033013  0.000001  0.024720
  0P   1pz        0.011938  0.047080  0.022053 -0.053098  0.036169 -0.076230
  0P   1px        0.043340 -0.017445  0.000008  0.017309  0.000008  0.144578
  0P   1py       -0.002907 -0.011457  0.090637  0.012913  0.148624  0.018543
  0P   3s        -0.268565 -0.501605 -0.000003 -0.073996 -0.000002 -0.064525
  0P   2pz       -0.026870 -0.110760 -0.053594  0.128749 -0.091688  0.193168
  0P   2px       -0.092406  0.041349 -0.000018 -0.040027 -0.000021 -0.360727
  0P   2py        0.006543  0.026953 -0.220271 -0.031310 -0.376758 -0.046988
  0P   4s        -0.065735 -0.212757  0.000000 -0.032779 -0.000000 -0.002571
  0P   3pz        0.000581 -0.004178 -0.009065  0.037495 -0.016419  0.050551
  0P   3px        0.005499  0.000046 -0.000001  0.009053 -0.000003 -0.060840
  0P   3py       -0.000142  0.001017 -0.037261 -0.009124 -0.067473 -0.012297
  0P   1dz2       0.012152 -0.009965 -0.017214  0.010209 -0.038008  0.040179
  0P   1dxz       0.001217  0.008780 -0.002480  0.015949  0.007060 -0.020554
  0P   1dyz      -0.000663 -0.002082 -0.038422 -0.000922 -0.084830  0.001667
  0P   1dx2y2    -0.018487  0.025307 -0.009942 -0.014100 -0.021941 -0.076026
  0P   1dxy      -0.000295 -0.002139 -0.010186 -0.003880  0.029032  0.005009
  1C   1s         0.179383 -0.078096 -0.000000 -0.003149 -0.000000  0.018071
  1C   2s        -0.335786  0.149187  0.000001  0.009705  0.000001 -0.024709
  1C   1pz        0.003353 -0.015755 -0.089656  0.403789  0.051473 -0.112153
  1C   1px        0.006672  0.144746 -0.000002  0.077049  0.000010  0.361234
  1C   1py       -0.000817  0.003828 -0.368530 -0.098243  0.211488  0.027286
  1C   3s        -0.356445  0.176058 -0.000002 -0.007186  0.000001 -0.123777
  1C   2pz        0.000701 -0.004403 -0.050660  0.221470  0.028478 -0.072972
  1C   2px        0.009250  0.050606 -0.000001  0.050874  0.000006  0.248059
  1C   2py       -0.000171  0.001069 -0.208234 -0.053884  0.116998  0.017753
  1C   1dz2      -0.000524  0.007389  0.010446  0.021556 -0.007102  0.005869
  1C   1dxz      -0.000839  0.000397 -0.002988  0.017856  0.003429 -0.007957
  1C   1dyz      -0.000071  0.000149  0.023330 -0.012064 -0.015864  0.003187
  1C   1dx2y2     0.001182 -0.013374  0.006030  0.009332 -0.004100 -0.022497
  1C   1dxy       0.000204 -0.000096 -0.012286 -0.004345  0.014089  0.001938
  2H   1s        -0.118763  0.081223 -0.000007  0.271066  0.000021  0.002603
  2H   2s        -0.025579  0.037237 -0.000005  0.200780  0.000017  0.004508
  3H   1s        -0.120768  0.089108 -0.199232 -0.112352  0.126546  0.107421
  3H   2s        -0.026325  0.045118 -0.146374 -0.086093  0.117935  0.099054
  4H   1s        -0.120768  0.089108  0.199245 -0.112326 -0.126564  0.107404
  4H   2s        -0.026326  0.045118  0.146384 -0.086074 -0.117950  0.099038
  5H   1s        -0.048096 -0.143223 -0.103141  0.032416 -0.216438  0.121118
  5H   2s        -0.019762 -0.084852 -0.106558  0.031107 -0.267649  0.143981
  6H   1s        -0.048096 -0.143223  0.103150  0.032397  0.216439  0.121113
  6H   2s        -0.019761 -0.084852  0.106566  0.031082  0.267649  0.143977
                     12        13        14        15        16        17
                  -0.35708   0.16926   0.18763   0.28218   0.28956   0.29821
                   2.00000   0.00000   0.00000   0.00000   0.00000   0.00000
                  --------  --------  --------  --------  --------  --------
  0P   1s         0.026615 -0.001909 -0.000000 -0.036330  0.032622 -0.000008
  0P   2s        -0.123242 -0.010288  0.000002  0.105543 -0.134161  0.000038
  0P   1pz        0.171726  0.048125  0.027543  0.017565 -0.085180 -0.014657
  0P   1px        0.104944 -0.083610  0.000011  0.034045  0.021218 -0.000006
  0P   1py       -0.041797 -0.011699  0.113187 -0.004276  0.020735 -0.060258
  0P   3s         0.283966 -0.088712  0.000004 -0.656711  0.454619 -0.000089
  0P   2pz       -0.448469 -0.122321 -0.069519 -0.078529  0.290646  0.054561
  0P   2px       -0.271897  0.195381 -0.000026 -0.065091 -0.080454  0.000024
  0P   2py        0.109155  0.029738 -0.285684  0.019115 -0.070742  0.224236
  0P   4s         0.300092  0.151533 -0.000025 -0.248425  1.190033 -0.000438
  0P   3pz       -0.285168 -0.532275 -0.331361 -0.104239  0.629502 -0.061459
  0P   3px       -0.168692  1.125502 -0.000155 -0.743999  0.298253 -0.000088
  0P   3py        0.069407  0.129392 -1.361804  0.025382 -0.153309 -0.250824
  0P   1dz2      -0.001611  0.040620  0.044412 -0.032564 -0.002319  0.000600
  0P   1dxz       0.004695  0.000914 -0.004227  0.002364  0.059809  0.018879
  0P   1dyz       0.001348  0.004895  0.099124 -0.000506 -0.001197  0.001387
  0P   1dx2y2    -0.002417 -0.089248  0.025647  0.058358  0.008657  0.000347
  0P   1dxy      -0.001143 -0.000215 -0.017379 -0.000580 -0.014558  0.077515
  1C   1s         0.015703  0.102123 -0.000008  0.062697  0.069304 -0.000021
  1C   2s        -0.032061 -0.072426  0.000005  0.004472 -0.038651  0.000007
  1C   1pz        0.081819  0.001039  0.011215  0.021155  0.156425  0.063885
  1C   1px        0.143585  0.128667 -0.000006 -0.282858  0.006463  0.000018
  1C   1py       -0.019917 -0.000253  0.046159 -0.005137 -0.038058  0.262224
  1C   3s        -0.055335 -1.505406  0.000126 -1.523455 -1.193191  0.000386
  1C   2pz        0.051818  0.049822  0.068470  0.115735  0.844346  0.350202
  1C   2px        0.096348  0.348308 -0.000020 -1.040788  0.180681  0.000010
  1C   2py       -0.012615 -0.012110  0.281815 -0.028119 -0.205446  1.437370
  1C   1dz2       0.008200  0.003662 -0.000034  0.006870 -0.010532  0.004481
  1C   1dxz       0.014343  0.007513  0.004670 -0.000260 -0.018326 -0.003839
  1C   1dyz      -0.003520 -0.001415 -0.000082  0.000534  0.004204  0.010012
  1C   1dx2y2    -0.000588 -0.000868 -0.000018 -0.013964  0.001978  0.002584
  1C   1dxy      -0.003490 -0.001827  0.019192  0.000065  0.004461 -0.015778
  2H   1s         0.093626  0.026477  0.000008 -0.004075 -0.069652 -0.000022
  2H   2s         0.130097  0.377131  0.000078  0.974756 -0.817498 -0.000746
  3H   1s        -0.017800 -0.003733  0.035919  0.007480  0.038701 -0.077674
  3H   2s        -0.017323  0.285244 -0.042648  1.101159  0.948596 -1.560900
  4H   1s        -0.017785 -0.003733 -0.035928  0.007476  0.038681  0.077691
  4H   2s        -0.017305  0.285278  0.042493  1.101162  0.948415  1.561303
  5H   1s        -0.093077  0.049448  0.117353 -0.041716 -0.048844 -0.033557
  5H   2s        -0.114439  0.466346  1.030057  0.241309 -1.002216 -0.099713
  6H   1s        -0.093078  0.049433 -0.117356 -0.041716 -0.048865  0.033577
  6H   2s        -0.114442  0.466217 -1.030112  0.241289 -1.002345  0.100381
                     18        19        20        21        22        23
                   0.30525   0.46635   0.48042   0.52188   0.57006   0.70701
                   0.00000   0.00000   0.00000   0.00000   0.00000   0.00000
                  --------  --------  --------  --------  --------  --------
  0P   1s         0.026068 -0.000001 -0.000126  0.001131  0.051091 -0.000000
  0P   2s        -0.112231 -0.000001  0.048971 -0.023577  0.099014 -0.000001
  0P   1pz       -0.015628 -0.065397 -0.260443 -0.043724  0.058293 -0.002177
  0P   1px        0.009615 -0.000012  0.037807 -0.301414 -0.020241  0.000002
  0P   1py        0.003776 -0.268725  0.063378  0.010655 -0.014188 -0.008948
  0P   3s         0.347618 -0.000019  0.166820 -0.048678  1.812925 -0.000006
  0P   2pz        0.014814  0.285667  1.150678  0.183258 -0.216043  0.008155
  0P   2px       -0.039842  0.000052 -0.156050  1.317791  0.141903 -0.000008
  0P   2py       -0.003510  1.173838 -0.280016 -0.044658  0.052581  0.033516
  0P   4s         1.107391  0.000055 -0.981139  0.673939 -4.748708  0.000002
  0P   3pz        1.145204 -0.258967 -1.514137  0.042340 -1.187652 -0.125090
  0P   3px        0.175149 -0.000036 -0.179168 -1.001852 -0.973669 -0.000016
  0P   3py       -0.278697 -1.064208  0.368506 -0.010258  0.289039 -0.513933
  0P   1dz2       0.022557  0.036565  0.018479  0.008987 -0.111509  0.002232
  0P   1dxz      -0.044843 -0.003182 -0.025427  0.034074 -0.137264  0.091439
  0P   1dyz      -0.019523  0.081594 -0.000534 -0.008350  0.048755  0.004993
  0P   1dx2y2     0.036381  0.021108 -0.029946  0.016709  0.004709  0.001323
  0P   1dxy       0.010937 -0.013095  0.006194 -0.008295  0.033413  0.375585
  1C   1s         0.062022  0.000000 -0.011670  0.043117  0.002254 -0.000000
  1C   2s        -0.029509  0.000001  0.013011 -0.180255 -0.092908 -0.000001
  1C   1pz       -0.220216 -0.018057 -0.063822 -0.011816  0.173953 -0.158295
  1C   1px       -0.031353  0.000001 -0.054668  0.065096 -0.206379 -0.000023
  1C   1py        0.053681 -0.074189  0.015528  0.002873 -0.042354 -0.650301
  1C   3s        -1.099036 -0.000006  0.112803  0.039720  0.389820  0.000000
  1C   2pz       -1.231507 -0.055831 -0.164845 -0.031744  0.059983  0.251432
  1C   2px        0.045273  0.000005 -0.402619  0.593316 -0.785848  0.000036
  1C   2py        0.300166 -0.229411  0.040130  0.007700 -0.014576  1.032858
  1C   1dz2       0.001519 -0.005400  0.015114 -0.036127 -0.015413  0.029358
  1C   1dxz       0.000455 -0.001497 -0.000451 -0.007029  0.038608 -0.018118
  1C   1dyz      -0.003073 -0.012064 -0.006501 -0.000660 -0.004556  0.065586
  1C   1dx2y2     0.009270 -0.003119 -0.001023  0.065129  0.044326  0.016944
  1C   1dxy      -0.000118 -0.006148  0.000109  0.001706 -0.009400 -0.074421
  2H   1s         0.037346  0.000004  0.067610 -0.077289  0.129931 -0.000089
  2H   2s         1.753902  0.000054  0.620762  0.101557  0.402276  0.000022
  3H   1s        -0.016057  0.033768 -0.006878 -0.079840 -0.080502 -0.395790
  3H   2s        -0.340080  0.435351 -0.108706  0.076683  0.704223  0.159366
  4H   1s        -0.015995 -0.033772 -0.006866 -0.079834 -0.080463  0.395876
  4H   2s        -0.338811 -0.435420 -0.108613  0.076668  0.704097 -0.159389
  5H   1s        -0.029422  0.114377  0.100642 -0.030893  0.107038 -0.093688
  5H   2s        -0.951837 -0.204558  0.318833 -0.222524  1.543405  0.294772
  6H   1s        -0.029378 -0.114378  0.100652 -0.030896  0.107036  0.093672
  6H   2s        -0.951636  0.204520  0.318857 -0.222519  1.543379 -0.294759
                     24        25        26        27        28        29
                   0.73841   0.81551   0.91341   0.93837   1.03087   1.04078
                   0.00000   0.00000   0.00000   0.00000   0.00000   0.00000
                  --------  --------  --------  --------  --------  --------
  0P   1s        -0.016780  0.012526  0.000001  0.013446  0.000009 -0.015632
  0P   2s        -0.052558  0.006948  0.000002  0.031788 -0.000008  0.020158
  0P   1pz       -0.014503  0.029267 -0.026774  0.006756 -0.000698  0.055650
  0P   1px       -0.012524 -0.089906 -0.000007 -0.008205  0.000002 -0.004554
  0P   1py        0.003526 -0.007117 -0.110024 -0.001639 -0.002748 -0.013546
  0P   3s        -0.667721  0.362891  0.000047  0.494353  0.000215 -0.366778
  0P   2pz        0.044528 -0.110858  0.099443 -0.021704  0.001383 -0.200623
  0P   2px        0.003028  0.233892  0.000027  0.036165 -0.000033  0.061888
  0P   2py       -0.010825  0.026963  0.408646  0.005261  0.005256  0.048830
  0P   4s         2.018968 -1.671094 -0.000148 -1.691888 -0.000897  1.545846
  0P   3pz        1.038951 -0.100620 -0.269145 -0.601124 -0.060561  0.471746
  0P   3px        0.205740 -1.171994 -0.000087 -0.315761 -0.000068  0.045384
  0P   3py       -0.252901  0.024545 -1.105741  0.146363 -0.247631 -0.115002
  0P   1dz2       0.141851  0.116190 -0.295141  0.764070 -0.037897  0.247779
  0P   1dxz      -0.357321  0.027085  0.010515  0.136889 -0.213141 -0.694362
  0P   1dyz      -0.067929  0.059176 -0.658776 -0.441711 -0.084446 -0.058433
  0P   1dx2y2     0.016932 -0.429994 -0.170399  0.384240 -0.021808 -0.203478
  0P   1dxy       0.086983 -0.006550  0.043175 -0.033295 -0.877293  0.168558
  1C   1s         0.006787  0.025779  0.000000  0.003507  0.000008 -0.016510
  1C   2s         0.003713 -0.119790  0.000005  0.020940 -0.000025  0.029962
  1C   1pz        0.617624 -0.096169  0.008357  0.025590 -0.116852 -0.361468
  1C   1px        0.183416  0.725199  0.000007  0.030082  0.000155 -0.360710
  1C   1py       -0.150349  0.023378  0.034278 -0.006172 -0.480914  0.087724
  1C   3s        -0.256743 -0.067820  0.000006  0.066056 -0.000001  0.068204
  1C   2pz       -1.173939  0.218661 -0.046123  0.138071  0.325113  1.084421
  1C   2px        0.073154 -1.943198 -0.000037 -0.446569 -0.000272  0.553164
  1C   2py        0.285770 -0.053148 -0.189558 -0.033670  1.338128 -0.263207
  1C   1dz2       0.064705  0.030462 -0.011464  0.011280  0.036137 -0.046778
  1C   1dxz       0.070904  0.002446 -0.001349 -0.026043  0.029473  0.089835
  1C   1dyz      -0.033385  0.005831 -0.025603 -0.003555  0.080648  0.037735
  1C   1dx2y2     0.017109 -0.075328 -0.006619 -0.005817  0.020886 -0.064808
  1C   1dxy      -0.017261 -0.000591 -0.005505  0.006326  0.121296 -0.021797
  2H   1s         0.447995  0.211394 -0.000002 -0.034500  0.000063 -0.153381
  2H   2s        -0.193457  0.482772  0.000032  0.213564  0.000305 -0.780572
  3H   1s        -0.198472  0.278822  0.071745  0.120468 -0.100979  0.057886
  3H   2s        -0.108853  0.526379  0.180710  0.161669 -0.591801  0.131963
  4H   1s        -0.198326  0.278804 -0.071730  0.120474  0.100960  0.057959
  4H   2s        -0.108861  0.526379 -0.180696  0.161617  0.591785  0.132438
  5H   1s         0.008896  0.104356 -0.480028 -0.035722 -0.025009  0.368364
  5H   2s        -0.907735  0.077159  1.284339  0.704745 -0.002670 -0.959531
  6H   1s         0.008938  0.104344  0.480019 -0.035756  0.024638  0.368401
  6H   2s        -0.907820  0.077179 -1.284215  0.704832  0.003715 -0.959645
                     30        31        32        33        34        35
                   1.06822   1.17065   1.17610   1.24378   1.37154   1.49036
                   0.00000   0.00000   0.00000   0.00000   0.00000   0.00000
                  --------  --------  --------  --------  --------  --------
  0P   1s        -0.017078 -0.000001 -0.003536 -0.001585 -0.020613  0.007022
  0P   2s         0.023045 -0.000002 -0.000179  0.025869  0.045018  0.079270
  0P   1pz        0.054837  0.002185  0.015041  0.031723  0.072961 -0.017422
  0P   1px        0.010184  0.000001  0.004655 -0.009267 -0.002162  0.076612
  0P   1py       -0.013345  0.008966 -0.003662 -0.007719 -0.017756  0.004225
  0P   3s        -0.395312 -0.000033 -0.099820  0.061864 -0.455471  0.443307
  0P   2pz       -0.189109 -0.019112 -0.098865 -0.111944 -0.248595  0.067341
  0P   2px        0.017506 -0.000006 -0.007065  0.093470 -0.130146 -0.478338
  0P   2py        0.046018 -0.078440  0.024079  0.027237  0.060504 -0.016330
  0P   4s         1.764762  0.000136  0.455718  0.155428  0.750413 -3.111163
  0P   3pz        0.970329  0.049360  0.260120  0.230986  0.423734 -0.768329
  0P   3px        0.064789  0.000027  0.043813 -0.170741 -0.040837 -1.034738
  0P   3py       -0.236103  0.202520 -0.063398 -0.056206 -0.103120  0.187008
  0P   1dz2       0.206655  0.022702  0.080540  0.020929 -0.228109  0.290798
  0P   1dxz       0.494382  0.038507  0.208428  0.076834  0.130062  0.016610
  0P   1dyz       0.026925  0.050560 -0.028496 -0.016624 -0.033471 -0.016814
  0P   1dx2y2    -0.462024  0.013100 -0.029533  0.027998  0.524466 -0.438306
  0P   1dxy      -0.120272  0.157979 -0.050754 -0.018710 -0.031708 -0.004012
  1C   1s        -0.020739 -0.000001  0.000404 -0.051786  0.010044 -0.132959
  1C   2s         0.051959 -0.000008  0.002783  1.534869 -1.044609 -1.655561
  1C   1pz        0.408438 -0.202004 -0.798378 -0.012304  0.019345 -0.030990
  1C   1px       -0.569270 -0.000053 -0.114400  0.461929  0.345193  0.228580
  1C   1py       -0.099375 -0.829237  0.194509  0.002973 -0.004726  0.007556
  1C   3s         0.132710  0.000018 -0.016312 -2.913268  1.664948  4.470437
  1C   2pz       -1.008297  0.243096  0.907703  0.001224 -0.035022  0.062104
  1C   2px        0.672159  0.000082  0.172881 -0.726623 -0.163232 -0.938308
  1C   2py        0.245351  0.998026 -0.221152 -0.000254  0.008553 -0.015149
  1C   1dz2       0.061804 -0.081247  0.156131 -0.050674 -0.041326  0.035560
  1C   1dxz      -0.072980  0.022770  0.107076 -0.007820  0.005823 -0.008563
  1C   1dyz      -0.017189 -0.181595 -0.091400 -0.001717  0.003017  0.000086
  1C   1dx2y2    -0.040534 -0.046904  0.083419  0.094420  0.059906 -0.061879
  1C   1dxy       0.017764  0.093466 -0.026084  0.001900 -0.001418  0.002095
  2H   1s         0.024009  0.000298  0.847369 -0.478710 -0.059157 -0.606237
  2H   2s         0.282029 -0.000518 -1.449893  1.079099 -0.325515 -0.165541
  3H   1s         0.056185  0.716625 -0.390655 -0.487451 -0.017543 -0.621837
  3H   2s        -0.526034 -1.265011  0.637195  1.092647 -0.347357 -0.218007
  4H   1s         0.056179 -0.716920 -0.390135 -0.487447 -0.017547 -0.621837
  4H   2s        -0.525921  1.265461  0.636294  1.092662 -0.347326 -0.218086
  5H   1s         0.414092  0.009365  0.066157  0.271944  0.735662 -0.200913
  5H   2s        -1.105521 -0.151147 -0.255837 -0.372307 -0.852336  0.962596
  6H   1s         0.414092 -0.009345  0.066148  0.271939  0.735669 -0.200715
  6H   2s        -1.105453  0.151012 -0.255972 -0.372296 -0.852337  0.962443
                     36        37        38        39        40        41
                   1.49400   2.00260   2.00676   2.48865   2.59010   2.59238
                   0.00000   0.00000   0.00000   0.00000   0.00000   0.00000
                  --------  --------  --------  --------  --------  --------
  0P   1s         0.000001 -0.001729 -0.000001  0.013282  0.000172  0.000000
  0P   2s         0.000009 -0.011094 -0.000003 -0.063521 -0.011902 -0.000005
  0P   1pz        0.022940 -0.024166  0.006381  0.002376  0.008185 -0.001755
  0P   1px        0.000014  0.003956  0.000005 -0.112451 -0.011796 -0.000006
  0P   1py        0.094279  0.005868  0.026264 -0.000573 -0.001989 -0.007221
  0P   3s         0.000042 -0.087818 -0.000036  0.185243 -0.034111 -0.000009
  0P   2pz       -0.078735  0.077726 -0.020579 -0.008756 -0.026068  0.005237
  0P   2px       -0.000075 -0.015352 -0.000024  0.566448  0.054943  0.000025
  0P   2py       -0.323595 -0.018872 -0.084706  0.002107  0.006334  0.021539
  0P   4s        -0.000333  0.353401  0.000102  0.882904  0.281276  0.000096
  0P   3pz        0.051209  0.225184 -0.034091  0.164268  0.203709 -0.036016
  0P   3px       -0.000101  0.061456  0.000003  0.268181  0.055853  0.000012
  0P   3py        0.210745 -0.054756 -0.140451 -0.039986 -0.049534 -0.148288
  0P   1dz2      -0.314280  0.024571 -0.010913 -0.246598 -0.007437  0.012521
  0P   1dxz       0.027675  0.247241 -0.062933  0.012329 -0.006788 -0.002576
  0P   1dyz      -0.701509 -0.006800 -0.024373  0.003211 -0.011395  0.027978
  0P   1dx2y2    -0.181505 -0.016191 -0.006346  0.414699  0.056942  0.007256
  0P   1dxy       0.113804 -0.060059 -0.259053 -0.003035  0.001645 -0.010604
  1C   1s        -0.000015  0.000163 -0.000003  0.017223  0.004309  0.000002
  1C   2s        -0.000189  0.026511 -0.000019  0.326293  0.046971  0.000020
  1C   1pz       -0.016829  0.065866 -0.015016  0.016359 -0.153748  0.037888
  1C   1px        0.000021 -0.015137 -0.000004  0.014434 -0.008984  0.000003
  1C   1py       -0.069270 -0.016002 -0.061816 -0.003984  0.037361  0.155908
  1C   3s         0.000509 -0.073315  0.000057 -0.713450 -0.145510 -0.000058
  1C   2pz        0.078453 -0.320467  0.068189  0.023409 -0.493569  0.112158
  1C   2px       -0.000096  0.073998  0.000024  0.863579  0.090253  0.000047
  1C   2py        0.322776  0.077857  0.280752 -0.005740  0.119953  0.461595
  1C   1dz2      -0.004957 -0.480164 -0.211966  0.622336 -0.609478 -0.380033
  1C   1dxz       0.007219  0.760942 -0.199001  0.092879 -0.682032  0.144781
  1C   1dyz      -0.011034  0.283423 -0.472966 -0.042654  0.404803 -0.848327
  1C   1dx2y2    -0.002870 -0.263983 -0.122430 -0.912828 -0.509138 -0.219445
  1C   1dxy       0.029646 -0.184820 -0.819068 -0.022548  0.165786  0.595950
  2H   1s        -0.000075  0.046543 -0.000002 -0.278408  0.817457  0.000173
  2H   2s         0.000042  0.108383  0.000021 -0.057647 -0.098623 -0.000019
  3H   1s        -0.043762 -0.027784 -0.037343 -0.174105 -0.417259 -0.714137
  3H   2s        -0.191325 -0.095206 -0.098423 -0.039614  0.031866  0.095340
  4H   1s         0.043635 -0.027810  0.037293 -0.174140 -0.417569  0.713946
  4H   2s         0.191201 -0.095271  0.098354 -0.039619  0.031913 -0.095324
  5H   1s         0.887693 -0.024349  0.031192  0.074123  0.019066 -0.030792
  5H   2s        -0.691636 -0.145532  0.040864 -0.231495 -0.118426  0.061794
  6H   1s        -0.887736 -0.024280 -0.031212  0.074122  0.019066  0.030802
  6H   2s         0.691837 -0.145546 -0.040966 -0.231495 -0.118413 -0.061873

MULLIKEN ATOMIC CHARGES
-----------------------
   0 P :    0.211676
   1 C :   -0.725847
   2 H :    0.194083
   3 H :    0.191548
   4 H :    0.191548
   5 H :   -0.031504
   6 H :   -0.031504
Sum of atomic charges:    0.0000000

LOEWDIN ATOMIC CHARGES
----------------------
   0 P :    0.138935
   1 C :   -0.549396
   2 H :    0.137301
   3 H :    0.143476
   4 H :    0.143477
   5 H :   -0.006897
   6 H :   -0.006897

  Mayer bond orders larger than 0.100000
B(  0-P ,  1-C ) :   0.9506 B(  0-P ,  5-H ) :   0.9611 B(  0-P ,  6-H ) :   0.9611
B(  1-C ,  2-H ) :   0.9431 B(  1-C ,  3-H ) :   0.9443 B(  1-C ,  4-H ) :   0.9443

FINAL SINGLE POINT ENERGY      -381.484606694140

DIPOLE MOMENT
-------------

Method             : SCF
Type of density    : Electron Density
Multiplicity       :   1
Irrep              :   0
Energy             :  -381.4846066941398703 Eh
Relativity type    :
Basis              : AO
                                X                 Y                 Z
Electronic contribution:     -3.225757403       0.297579921      -1.222279455
Nuclear contribution   :      3.634130045      -0.365406880       1.500907234
                        -----------------------------------------
Total Dipole Moment    :      0.408372642      -0.067826960       0.278627779
                        -----------------------------------------
Magnitude (a.u.)       :      0.499001153
Magnitude (Debye)      :      1.268360133

VIBRATIONAL FREQUENCIES
-----------------------

Scaling factor for frequencies =  1.000000000  (already applied!)

     0:       0.00 cm**-1
     1:       0.00 cm**-1
     2:       0.00 cm**-1
     3:       0.00 cm**-1
     4:       0.00 cm**-1
     5:       0.00 cm**-1
     6:     244.78 cm**-1
     7:     736.06 cm**-1
     8:     757.36 cm**-1
     9:     803.07 cm**-1
    10:    1104.22 cm**-1
    11:    1137.09 cm**-1
    12:    1247.25 cm**-1
    13:    1488.35 cm**-1
    14:    1619.73 cm**-1
    15:    1624.07 cm**-1
    16:    2577.74 cm**-1
    17:    2584.82 cm**-1
    18:    3211.98 cm**-1
    19:    3284.14 cm**-1
    20:    3298.04 cm**-1

IR SPECTRUM
-----------

 Mode   freq       eps      Int      T**2         TX        TY        TZ
       cm**-1   L/(mol*cm) km/mol    a.u.
----------------------------------------------------------------------------
  6:    244.78   0.000457    2.31  0.000583  (-0.000029  0.023452  0.005751)
  7:    736.06   0.001491    7.54  0.000632  (-0.025133  0.000163 -0.000692)
  8:    757.36   0.000614    3.10  0.000253  (-0.000007  0.015454  0.003756)
  9:    803.07   0.000427    2.16  0.000166  ( 0.002411 -0.002992  0.012301)
 10:   1104.22   0.012211   61.71  0.003451  (-0.041500  0.009821 -0.040400)
 11:   1137.09   0.004682   23.66  0.001285  (-0.000007  0.034830  0.008471)
 12:   1247.25   0.005587   28.23  0.001398  (-0.026051 -0.006334  0.026060)
 13:   1488.35   0.000034    0.17  0.000007  ( 0.000300  0.000624 -0.002563)
 14:   1619.73   0.001013    5.12  0.000195  (-0.007857 -0.002700  0.011230)
 15:   1624.07   0.001359    6.87  0.000261  (-0.000003 -0.015702 -0.003807)
 16:   2577.74   0.032507  164.28  0.003935  (-0.000094  0.060910  0.015010)
 17:   2584.82   0.022966  116.06  0.002773  (-0.023545 -0.011377  0.045704)
 18:   3211.98   0.004788   24.20  0.000465  ( 0.021476  0.000477 -0.001938)
 19:   3284.14   0.003291   16.63  0.000313  (-0.000006  0.017183  0.004175)
 20:   3298.04   0.003499   17.68  0.000331  ( 0.004171 -0.004181  0.017211)

--------------------------
THERMOCHEMISTRY AT 298.15K
--------------------------

Temperature         ...   298.15 K
Pressure            ...     1.00 atm
Total Mass          ...    48.03 AMU
Quasi RRHO          ...     True
Cut-Off Frequency   ...     1.00 cm^-1

Throughout the following assumptions are being made:
  (1) The electronic state is orbitally nondegenerate
  (2) There are no thermally accessible electronically excited states
  (3) Hindered rotations indicated by low frequency modes are not
      treated as such but are treated as vibrations and this may
      cause some error
  (4) All equations used are the standard statistical mechanics
      equations for an ideal gas
  (5) All vibrations are strictly harmonic

freq.     244.78  E(vib)   ...       0.31
freq.     736.06  E(vib)   ...       0.06
freq.     757.36  E(vib)   ...       0.06
freq.     803.07  E(vib)   ...       0.05
freq.    1104.22  E(vib)   ...       0.02
freq.    1137.09  E(vib)   ...       0.01
freq.    1247.25  E(vib)   ...       0.01
freq.    1488.35  E(vib)   ...       0.00
freq.    1619.73  E(vib)   ...       0.00
freq.    1624.07  E(vib)   ...       0.00
freq.    2577.74  E(vib)   ...       0.00
freq.    2584.82  E(vib)   ...       0.00
freq.    3211.98  E(vib)   ...       0.00
freq.    3284.14  E(vib)   ...       0.00
freq.    3298.04  E(vib)   ...       0.00

------------
INNER ENERGY
------------

The inner energy is: U= E(el) + E(ZPE) + E(vib) + E(rot) + E(trans)
    E(el)   - is the total energy from the electronic structure calculation
              = E(kin-el) + E(nuc-el) + E(el-el) + E(nuc-nuc)
    E(ZPE)  - the the zero temperature vibrational energy from the frequency calculation
    E(vib)  - the the finite temperature correction to E(ZPE) due to population
              of excited vibrational states
    E(rot)  - is the rotational thermal energy
    E(trans)- is the translational thermal energy

Summary of contributions to the inner energy U:
Electronic energy                ...   -381.48460669 Eh
Zero point energy                ...      0.05859153 Eh      36.77 kcal/mol
Thermal vibrational correction   ...      0.00083311 Eh       0.52 kcal/mol
Thermal rotational correction    ...      0.00141627 Eh       0.89 kcal/mol
Thermal translational correction ...      0.00141627 Eh       0.89 kcal/mol
-----------------------------------------------------------------------
Total thermal energy                   -381.42234951 Eh

Summary of corrections to the electronic energy:
(perhaps to be used in another calculation)
Total thermal correction                  0.00366565 Eh       2.30 kcal/mol
Non-thermal (ZPE) correction              0.05859153 Eh      36.77 kcal/mol
-----------------------------------------------------------------------
Total correction                          0.06225718 Eh      39.07 kcal/mol

--------
ENTHALPY
--------

The enthalpy is H = U + kB*T
                kB is Boltzmann's constant
Total thermal energy              ...   -381.42234951 Eh
Thermal Enthalpy correction       ...      0.00094421 Eh       0.59 kcal/mol
-----------------------------------------------------------------------
Total Enthalpy                    ...   -381.42140530 Eh

Note: Only C1 symmetry has been detected, increase convergence thresholds
      if your molecule has a higher symmetry. Symmetry factor of 1.0 is
      used for the rotational entropy correction.

Note: Rotational entropy computed according to Herzberg
Infrared and Raman Spectra, Chapter V,1, Van Nostrand Reinhold, 1945
Point Group:  C1, Symmetry Number:   1
Rotational constants in cm-1:     2.455184     0.392684     0.387735

Vibrational entropy computed according to the QRRHO of S. Grimme
Chem.Eur.J. 2012 18 9955 using a reference frequency of 100.0 cm-1

-------
ENTROPY
-------

The entropy contributions are T*S = T*(S(el)+S(vib)+S(rot)+S(trans))
     S(el)   - electronic entropy
     S(vib)  - vibrational entropy
     S(rot)  - rotational entropy
     S(trans)- translational entropy
The entropies will be listed as multiplied by the temperature to get
units of energy

Electronic entropy                ...      0.00000000 Eh      0.00 kcal/mol
Vibrational entropy               ...      0.00126630 Eh      0.79 kcal/mol
Rotational entropy                ...      0.00997534 Eh      6.26 kcal/mol
Translational entropy             ...      0.01783248 Eh     11.19 kcal/mol
-----------------------------------------------------------------------
Final entropy term                ...      0.02907412 Eh     18.24 kcal/mol

In case the symmetry of your molecule has not been determined correctly
or in case you have a reason to use a different symmetry number we print
out the resulting rotational entropy values for sn=1,12:

 non-linear molecules -----------------------------------
|  sn= 1 | S(rot)=       0.00997534 Eh      6.26 kcal/mol|
|  sn= 2 | S(rot)=       0.00932088 Eh      5.85 kcal/mol|
|  sn= 3 | S(rot)=       0.00893805 Eh      5.61 kcal/mol|
|  sn= 4 | S(rot)=       0.00866643 Eh      5.44 kcal/mol|
|  sn= 5 | S(rot)=       0.00845574 Eh      5.31 kcal/mol|
|  sn= 6 | S(rot)=       0.00828359 Eh      5.20 kcal/mol|
|  sn= 7 | S(rot)=       0.00813805 Eh      5.11 kcal/mol|
|  sn= 8 | S(rot)=       0.00801197 Eh      5.03 kcal/mol|
|  sn= 9 | S(rot)=       0.00790076 Eh      4.96 kcal/mol|
|  sn=10 | S(rot)=       0.00780128 Eh      4.90 kcal/mol|
|  sn=11 | S(rot)=       0.00771129 Eh      4.84 kcal/mol|
|  sn=12 | S(rot)=       0.00762914 Eh      4.79 kcal/mol|
 linear molecules ---------------------------------------
|  Dinfh | S(rot)=       0.00622036 Eh      3.90 kcal/mol|
|  Cinfv | S(rot)=       0.00687481 Eh      4.31 kcal/mol|
 --------------------------------------------------------

-------------------
GIBBS FREE ENERGY
-------------------

The Gibbs free energy is G = H - T*S

Total enthalpy                    ...   -381.42140530 Eh
Total entropy correction          ...     -0.02907412 Eh    -18.24 kcal/mol
-----------------------------------------------------------------------
Final Gibbs free energy         ...   -381.45047942 Eh

For completeness - the Gibbs free energy minus the electronic energy
G-E(el)                           ...      0.03412727 Eh     21.42 kcal/mol

                             ****ORCA TERMINATED NORMALLY****
TOTAL RUN TIME: 0 days 0 hours 0 minutes 6 seconds 255 msec
